[Molden Format]
[Atoms] (AU)
O    1    8         0.000000000000       0.000000000000      -0.119158594632
H    2    1         0.000000000000      -1.421423001244       0.945566684038
H    3    1         0.000000000000       1.421423001244       0.945566684038
[GTO]
  1 0
 s    9  1.00
    61420.0000000000         0.0000900000
     9199.0000000000         0.0006980000
     2091.0000000000         0.0036640000
      590.9000000000         0.0152180000
      192.3000000000         0.0524230000
       69.3200000000         0.1459210000
       26.9700000000         0.3052580000
       11.1000000000         0.3985080000
        4.6820000000         0.2169800000
 s    9  1.00
    61420.0000000000        -0.0000200000
     9199.0000000000        -0.0001590000
     2091.0000000000        -0.0008290000
      590.9000000000        -0.0035080000
      192.3000000000        -0.0121560000
       69.3200000000        -0.0362610000
       26.9700000000        -0.0829920000
       11.1000000000        -0.1520900000
        4.6820000000        -0.1153310000
 s    1  1.00
        1.4280000000         1.0000000000
 s    1  1.00
        0.5547000000         1.0000000000
 s    1  1.00
        0.2067000000         1.0000000000
 p    3  1.00
       63.4200000000         0.0060440000
       14.6600000000         0.0417990000
        4.4590000000         0.1611430000
 p    1  1.00
        1.5310000000         1.0000000000
 p    1  1.00
        0.5302000000         1.0000000000
 p    1  1.00
        0.1750000000         1.0000000000
 d    1  1.00
        3.7750000000         1.0000000000
 d    1  1.00
        1.3000000000         1.0000000000
 d    1  1.00
        0.4440000000         1.0000000000
 f    1  1.00
        2.6660000000         1.0000000000
 f    1  1.00
        0.8590000000         1.0000000000
 g    1  1.00
        1.8460000000         1.0000000000
 s    1  1.00
        0.0695900000         1.0000000000
 p    1  1.00
        0.0534800000         1.0000000000
 d    1  1.00
        0.1540000000         1.0000000000
 f    1  1.00
        0.3240000000         1.0000000000
 g    1  1.00
        0.7140000000         1.0000000000

  2 0
 s    3  1.00
       82.6400000000         0.0020060000
       12.4100000000         0.0153430000
        2.8240000000         0.0755790000
 s    1  1.00
        0.7977000000         1.0000000000
 s    1  1.00
        0.2581000000         1.0000000000
 s    1  1.00
        0.0898900000         1.0000000000
 p    1  1.00
        2.2920000000         1.0000000000
 p    1  1.00
        0.8380000000         1.0000000000
 p    1  1.00
        0.2920000000         1.0000000000
 d    1  1.00
        2.0620000000         1.0000000000
 d    1  1.00
        0.6620000000         1.0000000000
 f    1  1.00
        1.3970000000         1.0000000000
 s    1  1.00
        0.0236300000         1.0000000000
 p    1  1.00
        0.0848000000         1.0000000000
 d    1  1.00
        0.1900000000         1.0000000000
 f    1  1.00
        0.3600000000         1.0000000000

  3 0
 s    3  1.00
       82.6400000000         0.0020060000
       12.4100000000         0.0153430000
        2.8240000000         0.0755790000
 s    1  1.00
        0.7977000000         1.0000000000
 s    1  1.00
        0.2581000000         1.0000000000
 s    1  1.00
        0.0898900000         1.0000000000
 p    1  1.00
        2.2920000000         1.0000000000
 p    1  1.00
        0.8380000000         1.0000000000
 p    1  1.00
        0.2920000000         1.0000000000
 d    1  1.00
        2.0620000000         1.0000000000
 d    1  1.00
        0.6620000000         1.0000000000
 f    1  1.00
        1.3970000000         1.0000000000
 s    1  1.00
        0.0236300000         1.0000000000
 p    1  1.00
        0.0848000000         1.0000000000
 d    1  1.00
        0.1900000000         1.0000000000
 f    1  1.00
        0.3600000000         1.0000000000

[5D]
[9G]

[MO]
 Sym= A1
 Ene=       -20.5608570323
 Spin= Alpha
 Occup=  2.0000
  1       0.992353062022
  2       0.000958937414
  3       0.019418705190
  4      -0.007214098314
  5       0.001492837913
  6       0.000000000000
  7       0.000000000000
  8       0.001636592853
  9       0.000000000000
 10       0.000000000000
 11      -0.000517525860
 12       0.000000000000
 13       0.000000000000
 14      -0.000650069136
 15       0.000000000000
 16       0.000000000000
 17       0.001936490360
 18       0.000016620469
 19       0.000000000000
 20       0.000000000000
 21      -0.000127295058
 22       0.000000000000
 23      -0.000040783759
 24       0.000000000000
 25       0.000000000000
 26       0.000420262883
 27       0.000000000000
 28       0.000526014615
 29       0.000000000000
 30       0.000000000000
 31       0.000596403762
 32       0.000000000000
 33      -0.000041663764
 34       0.000000000000
 35       0.000000000000
 36      -0.000068022014
 37       0.000000000000
 38       0.000000000000
 39       0.000000000000
 40       0.000180258309
 41       0.000000000000
 42       0.000000000000
 43       0.000249081930
 44       0.000000000000
 45       0.000000000000
 46       0.000000000000
 47       0.000000719821
 48       0.000000000000
 49       0.000000000000
 50       0.000001780343
 51       0.000000000000
 52       0.000000000000
 53       0.000000000000
 54       0.000008625794
 55       0.000000000000
 56       0.001364507784
 57       0.000000000000
 58       0.000000000000
 59       0.000356930473
 60       0.000278559638
 61       0.000000000000
 62       0.000000000000
 63      -0.000276060311
 64       0.000000000000
 65      -0.000016643996
 66       0.000000000000
 67       0.000000000000
 68      -0.000152039041
 69       0.000000000000
 70       0.000000000000
 71       0.000000000000
 72       0.000019054062
 73       0.000000000000
 74       0.000000000000
 75      -0.000011811300
 76       0.000000000000
 77       0.000000000000
 78       0.000000000000
 79      -0.000058437818
 80       0.000000000000
 81      -0.000012376769
 82       0.000890694800
 83       0.000148065290
 84      -0.000648596501
 85       0.000000000000
 86       0.000003856358
 87       0.000019489128
 88       0.000000000000
 89       0.000475374136
 90      -0.000548665186
 91       0.000000000000
 92       0.000367014530
 93      -0.001063779820
 94      -0.000011804807
 95       0.000000000000
 96      -0.000031965983
 97      -0.000019038052
 98       0.000000000000
 99       0.000192738214
100       0.000000000000
101      -0.000383333052
102      -0.000127098634
103       0.000000000000
104       0.000028026784
105       0.000000000000
106       0.000021776373
107       0.000043893316
108       0.000000000000
109       0.000000000000
110      -0.000008152039
111      -0.000011389934
112       0.000000000000
113       0.000066344794
114      -0.000233264477
115       0.000201431788
116       0.000000000000
117      -0.000381961612
118      -0.000181212220
119       0.000000000000
120      -0.000029110879
121       0.000000000000
122       0.000064408819
123       0.000059876999
124       0.000000000000
125       0.000000000000
126      -0.000059043187
127      -0.000012376769
128       0.000890694800
129       0.000148065290
130      -0.000648596501
131       0.000000000000
132      -0.000003856358
133       0.000019489128
134       0.000000000000
135      -0.000475374136
136      -0.000548665186
137       0.000000000000
138      -0.000367014530
139      -0.001063779820
140      -0.000011804807
141       0.000000000000
142       0.000031965983
143      -0.000019038052
144       0.000000000000
145       0.000192738214
146       0.000000000000
147       0.000383333052
148      -0.000127098634
149       0.000000000000
150       0.000028026784
151       0.000000000000
152      -0.000021776373
153       0.000043893316
154       0.000000000000
155       0.000000000000
156       0.000008152039
157      -0.000011389934
158       0.000000000000
159      -0.000066344794
160      -0.000233264477
161       0.000201431788
162       0.000000000000
163       0.000381961612
164      -0.000181212220
165       0.000000000000
166      -0.000029110879
167       0.000000000000
168      -0.000064408819
169       0.000059876999
170       0.000000000000
171       0.000000000000
172       0.000059043187
 Sym= A1
 Ene=        -1.3607742469
 Spin= Alpha
 Occup=  2.0000
  1       0.003946428670
  2      -0.313983059100
  3      -0.246366349893
  4      -0.478750506897
  5      -0.225421099149
  6       0.000000000000
  7       0.000000000000
  8      -0.022585994459
  9       0.000000000000
 10       0.000000000000
 11      -0.043162276399
 12       0.000000000000
 13       0.000000000000
 14      -0.056030333572
 15       0.000000000000
 16       0.000000000000
 17      -0.025524441017
 18      -0.000281545723
 19       0.000000000000
 20       0.000000000000
 21       0.001106279105
 22       0.000000000000
 23      -0.001398331722
 24       0.000000000000
 25       0.000000000000
 26       0.005886362736
 27       0.000000000000
 28      -0.003515167894
 29       0.000000000000
 30       0.000000000000
 31       0.009338387903
 32       0.000000000000
 33       0.000445262453
 34       0.000000000000
 35       0.000000000000
 36       0.001087515615
 37       0.000000000000
 38       0.000000000000
 39       0.000000000000
 40       0.001472426655
 41       0.000000000000
 42       0.000000000000
 43       0.003810324943
 44       0.000000000000
 45       0.000000000000
 46       0.000000000000
 47       0.000172752188
 48       0.000000000000
 49       0.000000000000
 50       0.000260424065
 51       0.000000000000
 52       0.000000000000
 53       0.000000000000
 54      -0.000145188092
 55       0.000000000000
 56      -0.029015637665
 57       0.000000000000
 58       0.000000000000
 59      -0.003096009448
 60      -0.000747622540
 61       0.000000000000
 62       0.000000000000
 63       0.003341643752
 64       0.000000000000
 65       0.001642376808
 66       0.000000000000
 67       0.000000000000
 68       0.003908955475
 69       0.000000000000
 70       0.000000000000
 71       0.000000000000
 72       0.000788999303
 73       0.000000000000
 74       0.000000000000
 75       0.001148586467
 76       0.000000000000
 77       0.000000000000
 78       0.000000000000
 79      -0.000254398030
 80       0.000000000000
 81      -0.035604881793
 82      -0.077218858368
 83      -0.041477484830
 84       0.011463031100
 85       0.000000000000
 86      -0.005540089712
 87       0.003626108099
 88       0.000000000000
 89      -0.009154585612
 90       0.006320769334
 91       0.000000000000
 92      -0.008830967724
 93       0.006682687117
 94       0.000075257253
 95       0.000000000000
 96       0.001792635532
 97       0.001441082166
 98       0.000000000000
 99      -0.000526587428
100       0.000000000000
101       0.002603254248
102       0.001814948974
103       0.000000000000
104      -0.000251030781
105       0.000000000000
106      -0.000278717153
107      -0.000672429575
108       0.000000000000
109       0.000000000000
110       0.000480831183
111       0.000612709607
112       0.000000000000
113       0.000497341340
114      -0.000289106143
115      -0.000338492579
116       0.000000000000
117       0.002684188086
118       0.001558481361
119       0.000000000000
120      -0.000002055979
121       0.000000000000
122      -0.000258985862
123      -0.000260791263
124       0.000000000000
125       0.000000000000
126       0.000166258909
127      -0.035604881793
128      -0.077218858368
129      -0.041477484830
130       0.011463031100
131       0.000000000000
132       0.005540089712
133       0.003626108099
134       0.000000000000
135       0.009154585612
136       0.006320769334
137       0.000000000000
138       0.008830967724
139       0.006682687117
140       0.000075257253
141       0.000000000000
142      -0.001792635532
143       0.001441082166
144       0.000000000000
145      -0.000526587428
146       0.000000000000
147      -0.002603254248
148       0.001814948974
149       0.000000000000
150      -0.000251030781
151       0.000000000000
152       0.000278717153
153      -0.000672429575
154       0.000000000000
155       0.000000000000
156      -0.000480831183
157       0.000612709607
158       0.000000000000
159      -0.000497341340
160      -0.000289106143
161      -0.000338492579
162       0.000000000000
163      -0.002684188086
164       0.001558481361
165       0.000000000000
166      -0.000002055979
167       0.000000000000
168       0.000258985862
169      -0.000260791263
170       0.000000000000
171       0.000000000000
172      -0.000166258909
 Sym= B2
 Ene=        -0.7311374817
 Spin= Alpha
 Occup=  2.0000
  1       0.000000000000
  2       0.000000000000
  3       0.000000000000
  4       0.000000000000
  5       0.000000000000
  6       0.000000000000
  7       0.142046983749
  8       0.000000000000
  9       0.000000000000
 10       0.259293501517
 11       0.000000000000
 12       0.000000000000
 13       0.304481233851
 14       0.000000000000
 15       0.000000000000
 16       0.128037962701
 17       0.000000000000
 18       0.000000000000
 19       0.000000000000
 20       0.005194342351
 21       0.000000000000
 22       0.000000000000
 23       0.000000000000
 24       0.000000000000
 25       0.017376701084
 26       0.000000000000
 27       0.000000000000
 28       0.000000000000
 29       0.000000000000
 30       0.028556784197
 31       0.000000000000
 32       0.000000000000
 33       0.000000000000
 34       0.000000000000
 35       0.000568082411
 36       0.000000000000
 37       0.000000000000
 38       0.000000000000
 39      -0.001519655923
 40       0.000000000000
 41       0.000000000000
 42       0.000523868753
 43       0.000000000000
 44       0.000000000000
 45       0.000000000000
 46      -0.004346686061
 47       0.000000000000
 48       0.000000000000
 49      -0.000346646794
 50       0.000000000000
 51       0.000000000000
 52       0.000000000000
 53      -0.000620302237
 54       0.000000000000
 55       0.000000000000
 56       0.000000000000
 57       0.000000000000
 58       0.008248405989
 59       0.000000000000
 60       0.000000000000
 61       0.000000000000
 62       0.007717139641
 63       0.000000000000
 64       0.000000000000
 65       0.000000000000
 66       0.000000000000
 67       0.003509594783
 68       0.000000000000
 69       0.000000000000
 70       0.000000000000
 71      -0.003028035655
 72       0.000000000000
 73       0.000000000000
 74      -0.000595857046
 75       0.000000000000
 76       0.000000000000
 77       0.000000000000
 78      -0.001416247794
 79       0.000000000000
 80       0.000000000000
 81      -0.055108924085
 82      -0.134025725382
 83      -0.177861835780
 84      -0.009576499216
 85       0.000000000000
 86      -0.004315499924
 87       0.005461236987
 88       0.000000000000
 89      -0.009262530620
 90       0.011702418545
 91       0.000000000000
 92      -0.020381247057
 93       0.024964340504
 94      -0.000782311532
 95       0.000000000000
 96       0.002132403768
 97       0.000682824120
 98       0.000000000000
 99      -0.001005394350
100       0.000000000000
101       0.006445913833
102       0.004050614038
103       0.000000000000
104      -0.000306451382
105       0.000000000000
106      -0.000777442414
107      -0.000871042470
108       0.000000000000
109       0.000000000000
110       0.000250600132
111       0.003514953643
112       0.000000000000
113       0.004328930800
114       0.000751164860
115      -0.000954129076
116       0.000000000000
117       0.005922561521
118       0.001868814032
119       0.000000000000
120      -0.000980541429
121       0.000000000000
122      -0.000265833735
123      -0.001193123265
124       0.000000000000
125       0.000000000000
126       0.000914474880
127       0.055108924085
128       0.134025725382
129       0.177861835780
130       0.009576499216
131       0.000000000000
132      -0.004315499924
133      -0.005461236987
134       0.000000000000
135      -0.009262530620
136      -0.011702418545
137       0.000000000000
138      -0.020381247057
139      -0.024964340504
140       0.000782311532
141       0.000000000000
142       0.002132403768
143      -0.000682824120
144       0.000000000000
145       0.001005394350
146       0.000000000000
147       0.006445913833
148      -0.004050614038
149       0.000000000000
150       0.000306451382
151       0.000000000000
152      -0.000777442414
153       0.000871042470
154       0.000000000000
155       0.000000000000
156       0.000250600132
157      -0.003514953643
158       0.000000000000
159       0.004328930800
160      -0.000751164860
161       0.000954129076
162       0.000000000000
163       0.005922561521
164      -0.001868814032
165       0.000000000000
166       0.000980541429
167       0.000000000000
168      -0.000265833735
169       0.001193123265
170       0.000000000000
171       0.000000000000
172       0.000914474880
 Sym= A1
 Ene=        -0.5847562027
 Spin= Alpha
 Occup=  2.0000
  1       0.001979388283
  2       0.107113781081
  3       0.087660866523
  4       0.217291766674
  5       0.290523696132
  6       0.000000000000
  7       0.000000000000
  8      -0.157415739840
  9       0.000000000000
 10       0.000000000000
 11      -0.286007053429
 12       0.000000000000
 13       0.000000000000
 14      -0.352210119605
 15       0.000000000000
 16       0.000000000000
 17      -0.172859062503
 18      -0.001958633522
 19       0.000000000000
 20       0.000000000000
 21       0.001476793008
 22       0.000000000000
 23      -0.008924824134
 24       0.000000000000
 25       0.000000000000
 26       0.003978584153
 27       0.000000000000
 28      -0.017441509806
 29       0.000000000000
 30       0.000000000000
 31       0.003608479359
 32       0.000000000000
 33       0.000137986345
 34       0.000000000000
 35       0.000000000000
 36       0.001377841468
 37       0.000000000000
 38       0.000000000000
 39       0.000000000000
 40      -0.000326459402
 41       0.000000000000
 42       0.000000000000
 43       0.003942532436
 44       0.000000000000
 45       0.000000000000
 46       0.000000000000
 47       0.000261537293
 48       0.000000000000
 49       0.000000000000
 50       0.000421906296
 51       0.000000000000
 52       0.000000000000
 53       0.000000000000
 54      -0.000066696946
 55       0.000000000000
 56       0.053200117774
 57       0.000000000000
 58       0.000000000000
 59      -0.010201879031
 60      -0.004001952332
 61       0.000000000000
 62       0.000000000000
 63      -0.000490882169
 64       0.000000000000
 65      -0.000448097139
 66       0.000000000000
 67       0.000000000000
 68       0.003116544065
 69       0.000000000000
 70       0.000000000000
 71       0.000000000000
 72       0.000440132104
 73       0.000000000000
 74       0.000000000000
 75       0.001311310935
 76       0.000000000000
 77       0.000000000000
 78       0.000000000000
 79      -0.000256909713
 80       0.000000000000
 81      -0.031861889302
 82      -0.078842081704
 83      -0.155027842861
 84      -0.040781779605
 85       0.000000000000
 86      -0.004457087648
 87      -0.000823801020
 88       0.000000000000
 89      -0.009928838609
 90      -0.002524003143
 91       0.000000000000
 92      -0.031369961084
 93       0.004257057747
 94       0.001252728925
 95       0.000000000000
 96       0.000270839715
 97       0.001431524411
 98       0.000000000000
 99       0.001232079883
100       0.000000000000
101       0.003334174042
102       0.003709165148
103       0.000000000000
104      -0.000423392556
105       0.000000000000
106       0.000426083723
107      -0.000507934585
108       0.000000000000
109       0.000000000000
110       0.000699990791
111      -0.000635600384
112       0.000000000000
113      -0.003557878553
114      -0.003545406558
115       0.000279945814
116       0.000000000000
117       0.002195758369
118       0.001634524546
119       0.000000000000
120      -0.000303984058
121       0.000000000000
122      -0.000913860730
123      -0.000692291150
124       0.000000000000
125       0.000000000000
126      -0.000505467442
127      -0.031861889302
128      -0.078842081704
129      -0.155027842861
130      -0.040781779605
131       0.000000000000
132       0.004457087648
133      -0.000823801020
134       0.000000000000
135       0.009928838609
136      -0.002524003143
137       0.000000000000
138       0.031369961084
139       0.004257057747
140       0.001252728925
141       0.000000000000
142      -0.000270839715
143       0.001431524411
144       0.000000000000
145       0.001232079883
146       0.000000000000
147      -0.003334174042
148       0.003709165148
149       0.000000000000
150      -0.000423392556
151       0.000000000000
152      -0.000426083723
153      -0.000507934585
154       0.000000000000
155       0.000000000000
156      -0.000699990791
157      -0.000635600384
158       0.000000000000
159       0.003557878553
160      -0.003545406558
161       0.000279945814
162       0.000000000000
163      -0.002195758369
164       0.001634524546
165       0.000000000000
166      -0.000303984058
167       0.000000000000
168       0.000913860730
169      -0.000692291150
170       0.000000000000
171       0.000000000000
172       0.000505467442
 Sym= B1
 Ene=        -0.5114642811
 Spin= Alpha
 Occup=  2.0000
  1       0.000000000000
  2       0.000000000000
  3       0.000000000000
  4       0.000000000000
  5       0.000000000000
  6       0.177397284399
  7       0.000000000000
  8       0.000000000000
  9       0.323405191476
 10       0.000000000000
 11       0.000000000000
 12       0.412943992379
 13       0.000000000000
 14       0.000000000000
 15       0.246261128371
 16       0.000000000000
 17       0.000000000000
 18       0.000000000000
 19       0.001909386854
 20       0.000000000000
 21       0.000000000000
 22       0.000000000000
 23       0.000000000000
 24       0.008680032364
 25       0.000000000000
 26       0.000000000000
 27       0.000000000000
 28       0.000000000000
 29       0.012067010519
 30       0.000000000000
 31       0.000000000000
 32       0.000000000000
 33       0.000000000000
 34       0.000438840161
 35       0.000000000000
 36       0.000000000000
 37       0.000000000000
 38      -0.001311000958
 39       0.000000000000
 40       0.000000000000
 41       0.001223083734
 42       0.000000000000
 43       0.000000000000
 44       0.000000000000
 45      -0.003188172125
 46       0.000000000000
 47       0.000000000000
 48      -0.000022094516
 49       0.000000000000
 50       0.000000000000
 51       0.000000000000
 52      -0.000377783209
 53       0.000000000000
 54       0.000000000000
 55       0.000000000000
 56       0.000000000000
 57       0.019850398597
 58       0.000000000000
 59       0.000000000000
 60       0.000000000000
 61       0.004136240537
 62       0.000000000000
 63       0.000000000000
 64       0.000000000000
 65       0.000000000000
 66       0.001232546374
 67       0.000000000000
 68       0.000000000000
 69       0.000000000000
 70       0.000457858340
 71       0.000000000000
 72       0.000000000000
 73       0.000224104880
 74       0.000000000000
 75       0.000000000000
 76       0.000000000000
 77       0.000089114100
 78       0.000000000000
 79       0.000000000000
 80       0.000000000000
 81       0.000000000000
 82       0.000000000000
 83       0.000000000000
 84       0.000000000000
 85       0.004467508734
 86       0.000000000000
 87       0.000000000000
 88       0.013667263568
 89       0.000000000000
 90       0.000000000000
 91       0.030315019442
 92       0.000000000000
 93       0.000000000000
 94       0.000000000000
 95      -0.001239157110
 96       0.000000000000
 97       0.000000000000
 98       0.001814071490
 99       0.000000000000
100      -0.003383257127
101       0.000000000000
102       0.000000000000
103       0.004037793228
104       0.000000000000
105       0.000211157311
106       0.000000000000
107       0.000000000000
108      -0.000962293525
109      -0.000831509346
110       0.000000000000
111       0.000000000000
112       0.012969660661
113       0.000000000000
114       0.000000000000
115       0.000000000000
116      -0.004051063984
117       0.000000000000
118       0.000000000000
119       0.004330795523
120       0.000000000000
121       0.000601178184
122       0.000000000000
123       0.000000000000
124      -0.000030254362
125       0.000264756348
126       0.000000000000
127       0.000000000000
128       0.000000000000
129       0.000000000000
130       0.000000000000
131       0.004467508734
132       0.000000000000
133       0.000000000000
134       0.013667263568
135       0.000000000000
136       0.000000000000
137       0.030315019442
138       0.000000000000
139       0.000000000000
140       0.000000000000
141      -0.001239157110
142       0.000000000000
143       0.000000000000
144      -0.001814071490
145       0.000000000000
146      -0.003383257127
147       0.000000000000
148       0.000000000000
149      -0.004037793228
150       0.000000000000
151       0.000211157311
152       0.000000000000
153       0.000000000000
154       0.000962293525
155      -0.000831509346
156       0.000000000000
157       0.000000000000
158       0.012969660661
159       0.000000000000
160       0.000000000000
161       0.000000000000
162      -0.004051063984
163       0.000000000000
164       0.000000000000
165      -0.004330795523
166       0.000000000000
167       0.000601178184
168       0.000000000000
169       0.000000000000
170       0.000030254362
171       0.000264756348
172       0.000000000000
 Sym= A1
 Ene=         0.0272199965
 Spin= Alpha
 Occup=  0.0000
  1       0.001040650646
  2      -0.032279612920
  3      -0.006562172380
  4      -0.174508404973
  5      -1.598589464578
  6       0.000000000000
  7       0.000000000000
  8      -0.013817378074
  9       0.000000000000
 10       0.000000000000
 11      -0.019547283135
 12       0.000000000000
 13       0.000000000000
 14      -0.158151404606
 15       0.000000000000
 16       0.000000000000
 17      -0.569615352033
 18      -0.000264634268
 19       0.000000000000
 20       0.000000000000
 21      -0.000459860880
 22       0.000000000000
 23      -0.000505623242
 24       0.000000000000
 25       0.000000000000
 26       0.005228242276
 27       0.000000000000
 28      -0.000990979217
 29       0.000000000000
 30       0.000000000000
 31       0.061141124808
 32       0.000000000000
 33      -0.000071280026
 34       0.000000000000
 35       0.000000000000
 36       0.000409537314
 37       0.000000000000
 38       0.000000000000
 39       0.000000000000
 40       0.006306098784
 41       0.000000000000
 42       0.000000000000
 43       0.010022638814
 44       0.000000000000
 45       0.000000000000
 46       0.000000000000
 47       0.000387917574
 48       0.000000000000
 49       0.000000000000
 50       0.000985270220
 51       0.000000000000
 52       0.000000000000
 53       0.000000000000
 54      -0.000572095314
 55       0.000000000000
 56      -3.506672617279
 57       0.000000000000
 58       0.000000000000
 59      -0.209653136689
 60       0.029926855335
 61       0.000000000000
 62       0.000000000000
 63       0.093515197624
 64       0.000000000000
 65       0.016808564439
 66       0.000000000000
 67       0.000000000000
 68       0.015962240174
 69       0.000000000000
 70       0.000000000000
 71       0.000000000000
 72       0.003657582453
 73       0.000000000000
 74       0.000000000000
 75       0.001856854390
 76       0.000000000000
 77       0.000000000000
 78       0.000000000000
 79       0.000854352174
 80       0.000000000000
 81      -0.001174087741
 82       0.029133171920
 83       0.637189480238
 84       1.515152521588
 85       0.000000000000
 86      -0.001666111079
 87       0.001258599010
 88       0.000000000000
 89       0.019484016451
 90      -0.016278803623
 91       0.000000000000
 92       0.192805597724
 93      -0.154322153655
 94       0.000030493915
 95       0.000000000000
 96      -0.000167011691
 97      -0.000575164843
 98       0.000000000000
 99       0.000057780640
100       0.000000000000
101      -0.023627703025
102      -0.009715594963
103       0.000000000000
104       0.001300337013
105       0.000000000000
106       0.000668216442
107       0.001684512403
108       0.000000000000
109       0.000000000000
110      -0.000675379762
111       0.904524554485
112       0.000000000000
113       0.325797237555
114      -0.314447032778
115       0.005854135807
116       0.000000000000
117      -0.050159113409
118      -0.023990272076
119       0.000000000000
120       0.004389853168
121       0.000000000000
122       0.002523563229
123       0.003233537361
124       0.000000000000
125       0.000000000000
126       0.003001150830
127      -0.001174087741
128       0.029133171920
129       0.637189480238
130       1.515152521588
131       0.000000000000
132       0.001666111079
133       0.001258599010
134       0.000000000000
135      -0.019484016451
136      -0.016278803623
137       0.000000000000
138      -0.192805597724
139      -0.154322153655
140       0.000030493915
141       0.000000000000
142       0.000167011691
143      -0.000575164843
144       0.000000000000
145       0.000057780640
146       0.000000000000
147       0.023627703025
148      -0.009715594963
149       0.000000000000
150       0.001300337013
151       0.000000000000
152      -0.000668216442
153       0.001684512403
154       0.000000000000
155       0.000000000000
156       0.000675379762
157       0.904524554485
158       0.000000000000
159      -0.325797237555
160      -0.314447032778
161       0.005854135807
162       0.000000000000
163       0.050159113409
164      -0.023990272076
165       0.000000000000
166       0.004389853168
167       0.000000000000