Generated by Psi4
        SP                           SCF                   AUG-CC-PVQZ
Number of atoms                            I                3
Charge                                     I                0
Multiplicity                               I                1
Number of electrons                        I               10
Number of alpha electrons                  I                5
Number of beta electrons                   I                5
Number of basis functions                  I              172
Number of independent functions            I              172
Atomic numbers                             I   N=           3
           8           1           1
Nuclear charges                            R   N=           3
  8.00000000e+00  1.00000000e+00  1.00000000e+00
Current cartesian coordinates              R   N=           9
  0.00000000e+00  0.00000000e+00 -1.19158595e-01  0.00000000e+00 -1.42142300e+00
  9.45566684e-01  0.00000000e+00  1.42142300e+00  9.45566684e-01
Integer atomic weights                     I   N=           3
          15           1           1
Real atomic weights                        R   N=           3
  1.59949146e+01  1.00782503e+00  1.00782503e+00
Number of primitive shells                 I               70
Number of contracted shells                I               48
Pure/Cartesian d shells                    I                0
Pure/Cartesian f shells                    I                0
Highest angular momentum                   I                4
Largest degree of contraction              I                9
Shell types                                I   N=          48
           0           0           0           0           0           1
           1           1           1          -2          -2          -2
          -3          -3          -4           0           1          -2
          -3          -4           0           0           0           0
           1           1           1          -2          -2          -3
           0           1          -2          -3           0           0
           0           0           1           1           1          -2
          -2          -3           0           1          -2          -3
Number of primitives per shell             I   N=          48
           9           9           1           1           1           3
           1           1           1           1           1           1
           1           1           1           1           1           1
           1           1           3           1           1           1
           1           1           1           1           1           1
           1           1           1           1           3           1
           1           1           1           1           1           1
           1           1           1           1           1           1
Shell to atom map                          I   N=          48
           1           1           1           1           1           1
           1           1           1           1           1           1
           1           1           1           1           1           1
           1           1           2           2           2           2
           2           2           2           2           2           2
           2           2           2           2           3           3
           3           3           3           3           3           3
           3           3           3           3           3           3
Primitive exponents                        R   N=          70
  6.14200000e+04  9.19900000e+03  2.09100000e+03  5.90900000e+02  1.92300000e+02
  6.93200000e+01  2.69700000e+01  1.11000000e+01  4.68200000e+00  6.14200000e+04
  9.19900000e+03  2.09100000e+03  5.90900000e+02  1.92300000e+02  6.93200000e+01
  2.69700000e+01  1.11000000e+01  4.68200000e+00  1.42800000e+00  5.54700000e-01
  2.06700000e-01  6.34200000e+01  1.46600000e+01  4.45900000e+00  1.53100000e+00
  5.30200000e-01  1.75000000e-01  3.77500000e+00  1.30000000e+00  4.44000000e-01
  2.66600000e+00  8.59000000e-01  1.84600000e+00  6.95900000e-02  5.34800000e-02
  1.54000000e-01  3.24000000e-01  7.14000000e-01  8.26400000e+01  1.24100000e+01
  2.82400000e+00  7.97700000e-01  2.58100000e-01  8.98900000e-02  2.29200000e+00
  8.38000000e-01  2.92000000e-01  2.06200000e+00  6.62000000e-01  1.39700000e+00
  2.36300000e-02  8.48000000e-02  1.90000000e-01  3.60000000e-01  8.26400000e+01
  1.24100000e+01  2.82400000e+00  7.97700000e-01  2.58100000e-01  8.98900000e-02
  2.29200000e+00  8.38000000e-01  2.92000000e-01  2.06200000e+00  6.62000000e-01
  1.39700000e+00  2.36300000e-02  8.48000000e-02  1.90000000e-01  3.60000000e-01
Contraction coefficients                   R   N=          70
  9.07389268e-05  7.03730788e-04  3.69408253e-03  1.53429443e-02  5.28534084e-02
  1.47119055e-01  3.07764259e-01  4.01779869e-01  2.18761470e-01 -5.61063859e-05
 -4.46045768e-04 -2.32560969e-03 -9.84106008e-03 -3.41014613e-02 -1.01723683e-01
 -2.32819059e-01 -4.26661011e-01 -3.23540279e-01  1.00000000e+00  1.00000000e+00
  1.00000000e+00  3.13275025e-02  2.16654248e-01  8.35242842e-01  1.00000000e+00
  1.00000000e+00  1.00000000e+00  1.00000000e+00  1.00000000e+00  1.00000000e+00
  1.00000000e+00  1.00000000e+00  1.00000000e+00  1.00000000e+00  1.00000000e+00
  1.00000000e+00  1.00000000e+00  1.00000000e+00  2.29507578e-02  1.75540118e-01
  8.64703551e-01  1.00000000e+00  1.00000000e+00  1.00000000e+00  1.00000000e+00
  1.00000000e+00  1.00000000e+00  1.00000000e+00  1.00000000e+00  1.00000000e+00
  1.00000000e+00  1.00000000e+00  1.00000000e+00  1.00000000e+00  2.29507578e-02
  1.75540118e-01  8.64703551e-01  1.00000000e+00  1.00000000e+00  1.00000000e+00
  1.00000000e+00  1.00000000e+00  1.00000000e+00  1.00000000e+00  1.00000000e+00
  1.00000000e+00  1.00000000e+00  1.00000000e+00  1.00000000e+00  1.00000000e+00
Coordinates of each shell                  R   N=         144
  0.00000000e+00  0.00000000e+00 -1.19158595e-01  0.00000000e+00  0.00000000e+00
 -1.19158595e-01  0.00000000e+00  0.00000000e+00 -1.19158595e-01  0.00000000e+00
  0.00000000e+00 -1.19158595e-01  0.00000000e+00  0.00000000e+00 -1.19158595e-01
  0.00000000e+00  0.00000000e+00 -1.19158595e-01  0.00000000e+00  0.00000000e+00
 -1.19158595e-01  0.00000000e+00  0.00000000e+00 -1.19158595e-01  0.00000000e+00
  0.00000000e+00 -1.19158595e-01  0.00000000e+00  0.00000000e+00 -1.19158595e-01
  0.00000000e+00  0.00000000e+00 -1.19158595e-01  0.00000000e+00  0.00000000e+00
 -1.19158595e-01  0.00000000e+00  0.00000000e+00 -1.19158595e-01  0.00000000e+00
  0.00000000e+00 -1.19158595e-01  0.00000000e+00  0.00000000e+00 -1.19158595e-01
  0.00000000e+00  0.00000000e+00 -1.19158595e-01  0.00000000e+00  0.00000000e+00
 -1.19158595e-01  0.00000000e+00  0.00000000e+00 -1.19158595e-01  0.00000000e+00
  0.00000000e+00 -1.19158595e-01  0.00000000e+00  0.00000000e+00 -1.19158595e-01
  0.00000000e+00 -1.42142300e+00  9.45566684e-01  0.00000000e+00 -1.42142300e+00
  9.45566684e-01  0.00000000e+00 -1.42142300e+00  9.45566684e-01  0.00000000e+00
 -1.42142300e+00  9.45566684e-01  0.00000000e+00 -1.42142300e+00  9.45566684e-01
  0.00000000e+00 -1.42142300e+00  9.45566684e-01  0.00000000e+00 -1.42142300e+00
  9.45566684e-01  0.00000000e+00 -1.42142300e+00  9.45566684e-01  0.00000000e+00
 -1.42142300e+00  9.45566684e-01  0.00000000e+00 -1.42142300e+00  9.45566684e-01
  0.00000000e+00 -1.42142300e+00  9.45566684e-01  0.00000000e+00 -1.42142300e+00
  9.45566684e-01  0.00000000e+00 -1.42142300e+00  9.45566684e-01  0.00000000e+00
 -1.42142300e+00  9.45566684e-01  0.00000000e+00  1.42142300e+00  9.45566684e-01
  0.00000000e+00  1.42142300e+00  9.45566684e-01  0.00000000e+00  1.42142300e+00
  9.45566684e-01  0.00000000e+00  1.42142300e+00  9.45566684e-01  0.00000000e+00
  1.42142300e+00  9.45566684e-01  0.00000000e+00  1.42142300e+00  9.45566684e-01
  0.00000000e+00  1.42142300e+00  9.45566684e-01  0.00000000e+00  1.42142300e+00
  9.45566684e-01  0.00000000e+00  1.42142300e+00  9.45566684e-01  0.00000000e+00
  1.42142300e+00  9.45566684e-01  0.00000000e+00  1.42142300e+00  9.45566684e-01
  0.00000000e+00  1.42142300e+00  9.45566684e-01  0.00000000e+00  1.42142300e+00
  9.45566684e-01  0.00000000e+00  1.42142300e+00  9.45566684e-01
Total Energy                               R     -7.606667516613633e+01
Alpha Orbital Energies                     R   N=         172
 -2.05608570e+01 -1.36077425e+00 -7.31137482e-01 -5.84756203e-01 -5.11464281e-01
  2.72199965e-02  4.30535517e-02  1.14475664e-01  1.32140535e-01  1.51146931e-01
  1.58274309e-01  1.86369666e-01  1.97643742e-01  2.08975859e-01  2.40495020e-01
  2.58155683e-01  2.91719160e-01  3.61808869e-01  3.93667072e-01  4.71933257e-01
  5.08505907e-01  5.43000299e-01  5.47651000e-01  5.54618000e-01  6.14334427e-01
  6.32025864e-01  6.48986085e-01  6.62296566e-01  6.63840596e-01  6.87875863e-01
  7.05050908e-01  7.19580412e-01  7.71713827e-01  7.96983893e-01  8.01382218e-01
  8.16191242e-01  8.43854405e-01  8.53569727e-01  9.64527929e-01  1.13100015e+00
  1.13747749e+00  1.22239134e+00  1.33390030e+00  1.43726168e+00  1.48739965e+00
  1.50835959e+00  1.52206413e+00  1.52637953e+00  1.55559785e+00  1.58691246e+00
  1.62338103e+00  1.64775954e+00  1.65923649e+00  1.66870300e+00  1.68374908e+00
  1.70382619e+00  1.72701604e+00  1.75712797e+00  1.77421615e+00  1.78998841e+00
  1.84154497e+00  1.86114263e+00  1.89109519e+00  1.91091327e+00  1.97673596e+00
  2.00936304e+00  2.02746542e+00  2.02848853e+00  2.08865576e+00  2.21303989e+00
  2.22215074e+00  2.32057826e+00  2.47677267e+00  2.66132162e+00  2.66441111e+00
  2.91291491e+00  2.99116994e+00  3.01617898e+00  3.03770368e+00  3.07560455e+00
  3.10289049e+00  3.30174572e+00  3.30721528e+00  3.30888841e+00  3.52221155e+00
  3.58920959e+00  3.66377852e+00  3.69053439e+00  3.74828969e+00  3.78735042e+00
  3.91599613e+00  4.07349365e+00  4.16005298e+00  4.16124401e+00  4.17296111e+00
  4.17886263e+00  4.23146381e+00  4.34089434e+00  4.42909060e+00  4.59917038e+00
  4.73621396e+00  4.76761793e+00  4.81244819e+00  4.81299491e+00  4.81925817e+00
  4.90012190e+00  5.00792616e+00  5.26649431e+00  5.32097194e+00  5.57581763e+00
  5.58902450e+00  5.92780359e+00  5.92904876e+00  6.10623079e+00  6.29304659e+00
  6.86635724e+00  6.89528589e+00  6.89973197e+00  6.95833102e+00  7.77496950e+00
  7.78249362e+00  7.83733951e+00  7.90013082e+00  7.90106164e+00  7.94380162e+00
  7.95707697e+00  8.04353236e+00  8.23883603e+00  8.26142529e+00  8.57205969e+00
  8.63129022e+00  8.66988022e+00  8.72124199e+00  8.87423724e+00  8.89628781e+00
  8.97386709e+00  9.08374051e+00  9.24943732e+00  9.65745194e+00  9.95463719e+00
  1.00084910e+01  1.00301431e+01  1.00860017e+01  1.04627728e+01  1.05252439e+01
  1.05690001e+01  1.09984976e+01  1.10210333e+01  1.10946530e+01  1.12609753e+01
  1.13673370e+01  1.14551206e+01  1.17524402e+01  1.18204836e+01  1.18214933e+01
  1.20360921e+01  1.21998678e+01  1.23073781e+01  1.26683976e+01  1.28434005e+01
  1.29492339e+01  1.29806082e+01  1.31924598e+01  1.41208570e+01  1.42187901e+01
  1.46512752e+01  1.49909915e+01  1.50471982e+01  1.54804778e+01  1.70233117e+01
  1.74395629e+01  4.57213423e+01
Alpha MO coefficients                      R   N=       29584
  9.92353062e-01  9.58937414e-04  1.94187052e-02 -7.21409831e-03  1.49283791e-03
  0.00000000e+00  0.00000000e+00  1.63659285e-03  0.00000000e+00  0.00000000e+00
 -5.17525860e-04  0.00000000e+00  0.00000000e+00 -6.50069136e-04  0.00000000e+00
  0.00000000e+00  1.93649036e-03  1.66204686e-05  0.00000000e+00  0.00000000e+00
 -1.27295058e-04  0.00000000e+00 -4.07837592e-05  0.00000000e+00  0.00000000e+00
  4.20262883e-04  0.00000000e+00  5.26014615e-04  0.00000000e+00  0.00000000e+00
  5.96403762e-04  0.00000000e+00 -4.16637637e-05  0.00000000e+00  0.00000000e+00
 -6.80220135e-05  0.00000000e+00  0.00000000e+00  0.00000000e+00  1.80258309e-04
  0.00000000e+00  0.00000000e+00  2.49081930e-04  0.00000000e+00  0.00000000e+00
  0.00000000e+00  7.19820766e-07  0.00000000e+00  0.00000000e+00  1.78034267e-06
  0.00000000e+00  0.00000000e+00  0.00000000e+00  8.62579374e-06  0.00000000e+00
  1.36450778e-03  0.00000000e+00  0.00000000e+00  3.56930473e-04  2.78559638e-04
  0.00000000e+00  0.00000000e+00 -2.76060311e-04  0.00000000e+00 -1.66439960e-05
  0.00000000e+00  0.00000000e+00 -1.52039041e-04  0.00000000e+00  0.00000000e+00
  0.00000000e+00  1.90540618e-05  0.00000000e+00  0.00000000e+00 -1.18113004e-05
  0.00000000e+00  0.00000000e+00  0.00000000e+00 -5.84378178e-05  0.00000000e+00
 -1.23767687e-05  8.90694800e-04  1.48065290e-04 -6.48596501e-04  0.00000000e+00
  3.85635773e-06  1.94891277e-05  0.00000000e+00  4.75374136e-04 -5.48665186e-04
  0.00000000e+00  3.67014530e-04 -1.06377982e-03 -1.18048073e-05  0.00000000e+00
 -3.19659833e-05 -1.90380523e-05  0.00000000e+00  1.92738214e-04  0.00000000e+00
 -3.83333052e-04 -1.27098634e-04  0.00000000e+00  2.80267836e-05  0.00000000e+00
  2.17763729e-05  4.38933163e-05  0.00000000e+00  0.00000000e+00 -8.15203912e-06
 -1.13899340e-05  0.00000000e+00  6.63447938e-05 -2.33264477e-04  2.01431788e-04
  0.00000000e+00 -3.81961612e-04 -1.81212220e-04  0.00000000e+00 -2.91108791e-05
  0.00000000e+00  6.44088194e-05  5.98769995e-05  0.00000000e+00  0.00000000e+00
 -5.90431867e-05 -1.23767687e-05  8.90694800e-04  1.48065290e-04 -6.48596501e-04
  0.00000000e+00 -3.85635773e-06  1.94891277e-05  0.00000000e+00 -4.75374136e-04
 -5.48665186e-04  0.00000000e+00 -3.67014530e-04 -1.06377982e-03 -1.18048073e-05
  0.00000000e+00  3.19659833e-05 -1.90380523e-05  0.00000000e+00  1.92738214e-04
  0.00000000e+00  3.83333052e-04 -1.27098634e-04  0.00000000e+00  2.80267836e-05
  0.00000000e+00 -2.17763729e-05  4.38933163e-05  0.00000000e+00  0.00000000e+00
  8.15203912e-06 -1.13899340e-05  0.00000000e+00 -6.63447938e-05 -2.33264477e-04
  2.01431788e-04  0.00000000e+00  3.81961612e-04 -1.81212220e-04  0.00000000e+00
 -2.91108791e-05  0.00000000e+00 -6.44088194e-05  5.98769995e-05  0.00000000e+00
  0.00000000e+00  5.90431867e-05  3.94642867e-03 -3.13983059e-01 -2.46366350e-01
 -4.78750507e-01 -2.25421099e-01  0.00000000e+00  0.00000000e+00 -2.25859945e-02
  0.00000000e+00  0.00000000e+00 -4.31622764e-02  0.00000000e+00  0.00000000e+00
 -5.60303336e-02  0.00000000e+00  0.00000000e+00 -2.55244410e-02 -2.81545723e-04
  0.00000000e+00  0.00000000e+00  1.10627911e-03  0.00000000e+00 -1.39833172e-03
  0.00000000e+00  0.00000000e+00  5.88636274e-03  0.00000000e+00 -3.51516789e-03
  0.00000000e+00  0.00000000e+00  9.33838790e-03  0.00000000e+00  4.45262453e-04
  0.00000000e+00  0.00000000e+00  1.08751561e-03  0.00000000e+00  0.00000000e+00
  0.00000000e+00  1.47242665e-03  0.00000000e+00  0.00000000e+00  3.81032494e-03
  0.00000000e+00  0.00000000e+00  0.00000000e+00  1.72752188e-04  0.00000000e+00
  0.00000000e+00  2.60424065e-04  0.00000000e+00  0.00000000e+00  0.00000000e+00
 -1.45188092e-04  0.00000000e+00 -2.90156377e-02  0.00000000e+00  0.00000000e+00
 -3.09600945e-03 -7.47622540e-04  0.00000000e+00  0.00000000e+00  3.34164375e-03
  0.00000000e+00  1.64237681e-03  0.00000000e+00  0.00000000e+00  3.90895548e-03
  0.00000000e+00  0.00000000e+00  0.00000000e+00  7.88999303e-04  0.00000000e+00
  0.00000000e+00  1.14858647e-03  0.00000000e+00  0.00000000e+00  0.00000000e+00
 -2.54398030e-04  0.00000000e+00 -3.56048818e-02 -7.72188584e-02 -4.14774848e-02
  1.14630311e-02  0.00000000e+00 -5.54008971e-03  3.62610810e-03  0.00000000e+00
 -9.15458561e-03  6.32076933e-03  0.00000000e+00 -8.83096772e-03  6.68268712e-03
  7.52572529e-05  0.00000000e+00  1.79263553e-03  1.44108217e-03  0.00000000e+00
 -5.26587428e-04  0.00000000e+00  2.60325425e-03  1.81494897e-03  0.00000000e+00
 -2.51030781e-04  0.00000000e+00 -2.78717153e-04 -6.72429575e-04  0.00000000e+00
  0.00000000e+00  4.80831183e-04  6.12709607e-04  0.00000000e+00  4.97341340e-04
 -2.89106143e-04 -3.38492579e-04  0.00000000e+00  2.68418809e-03  1.55848136e-03
  0.00000000e+00 -2.05597920e-06  0.00000000e+00 -2.58985862e-04 -2.60791263e-04
  0.00000000e+00  0.00000000e+00  1.66258909e-04 -3.56048818e-02 -7.72188584e-02
 -4.14774848e-02  1.14630311e-02  0.00000000e+00  5.54008971e-03  3.62610810e-03
  0.00000000e+00  9.15458561e-03  6.32076933e-03  0.00000000e+00  8.83096772e-03
  6.68268712e-03  7.52572529e-05  0.00000000e+00 -1.79263553e-03  1.44108217e-03
  0.00000000e+00 -5.26587428e-04  0.00000000e+00 -2.60325425e-03  1.81494897e-03
  0.00000000e+00 -2.51030781e-04  0.00000000e+00  2.78717153e-04 -6.72429575e-04
  0.00000000e+00  0.00000000e+00 -4.80831183e-04  6.12709607e-04  0.00000000e+00
 -4.97341340e-04 -2.89106143e-04 -3.38492579e-04  0.00000000e+00 -2.68418809e-03
  1.55848136e-03  0.00000000e+00 -2.05597920e-06  0.00000000e+00  2.58985862e-04
 -2.60791263e-04  0.00000000e+00  0.00000000e+00 -1.66258909e-04  0.00000000e+00
  0.00000000e+00  0.00000000e+00  0.00000000e+00  0.00000000e+00  0.00000000e+00
  1.42046984e-01  0.00000000e+00  0.00000000e+00  2.59293502e-01  0.00000000e+00
  0.00000000e+00  3.04481234e-01  0.00000000e+00  0.00000000e+00  1.28037963e-01
  0.00000000e+00  0.00000000e+00  0.00000000e+00  5.19434235e-03  0.00000000e+00
  0.00000000e+00  0.00000000e+00  0.00000000e+00  1.73767011e-02  0.00000000e+00
  0.00000000e+00  0.00000000e+00  0.00000000e+00  2.85567842e-02  0.00000000e+00
  0.00000000e+00  0.00000000e+00  0.00000000e+00  5.68082411e-04  0.00000000e+00
  0.00000000e+00  0.00000000e+00 -1.51965592e-03  0.00000000e+00  0.00000000e+00
  5.23868753e-04  0.00000000e+00  0.00000000e+00  0.00000000e+00 -4.34668606e-03
  0.00000000e+00  0.00000000e+00 -3.46646794e-04  0.00000000e+00  0.00000000e+00
  0.00000000e+00 -6.20302237e-04  0.00000000e+00  0.00000000e+00  0.00000000e+00
  0.00000000e+00  8.24840599e-03  0.00000000e+00  0.00000000e+00  0.00000000e+00
  7.71713964e-03  0.00000000e+00  0.00000000e+00  0.00000000e+00  0.00000000e+00
  3.50959478e-03  0.00000000e+00  0.00000000e+00  0.00000000e+00 -3.02803566e-03
  0.00000000e+00  0.00000000e+00 -5.95857046e-04  0.00000000e+00  0.00000000e+00
  0.00000000e+00 -1.41624779e-03  0.00000000e+00  0.00000000e+00 -5.51089241e-02
 -1.34025725e-01 -1.77861836e-01 -9.57649922e-03  0.00000000e+00 -4.31549992e-03
  5.46123699e-03  0.00000000e+00 -9.26253062e-03  1.17024185e-02  0.00000000e+00
 -2.03812471e-02  2.49643405e-02 -7.82311532e-04  0.00000000e+00  2.13240377e-03
  6.82824120e-04  0.00000000e+00 -1.00539435e-03  0.00000000e+00  6.44591383e-03
  4.05061404e-03  0.00000000e+00 -3.06451382e-04  0.00000000e+00 -7.77442414e-04
 -8.71042470e-04  0.00000000e+00  0.00000000e+00  2.50600132e-04  3.51495364e-03
  0.00000000e+00  4.32893080e-03  7.51164860e-04 -9.54129076e-04  0.00000000e+00
  5.92256152e-03  1.86881403e-03  0.00000000e+00 -9.80541429e-04  0.00000000e+00
 -2.65833735e-04 -1.19312327e-03  0.00000000e+00  0.00000000e+00  9.14474880e-04
  5.51089241e-02  1.34025725e-01  1.77861836e-01  9.57649922e-03  0.00000000e+00
 -4.31549992e-03 -5.46123699e-03  0.00000000e+00 -9.26253062e-03 -1.17024185e-02
  0.00000000e+00 -2.03812471e-02 -2.49643405e-02  7.82311532e-04  0.00000000e+00
  2.13240377e-03 -6.82824120e-04  0.00000000e+00  1.00539435e-03  0.00000000e+00
  6.44591383e-03 -4.05061404e-03  0.00000000e+00  3.06451382e-04  0.00000000e+00
 -7.77442414e-04  8.71042470e-04  0.00000000e+00  0.00000000e+00  2.50600132e-04
 -3.51495364e-03  0.00000000e+00  4.32893080e-03 -7.51164860e-04  9.54129076e-04
  0.00000000e+00  5.92256152e-03 -1.86881403e-03  0.00000000e+00  9.80541429e-04
  0.00000000e+00 -2.65833735e-04  1.19312327e-03  0.00000000e+00  0.00000000e+00
  9.14474880e-04  1.97938828e-03  1.07113781e-01  8.76608665e-02  2.17291767e-01
  2.90523696e-01  0.00000000e+00  0.00000000e+00 -1.57415740e-01  0.00000000e+00
  0.00000000e+00 -2.86007053e-01  0.00000000e+00  0.00000000e+00 -3.52210120e-01
  0.00000000e+00  0.00000000e+00 -1.72859063e-01 -1.95863352e-03  0.00000000e+00
  0.00000000e+00  1.47679301e-03  0.00000000e+00 -8.92482413e-03  0.00000000e+00
  0.00000000e+00  3.97858415e-03  0.00000000e+00 -1.74415098e-02  0.00000000e+00
  0.00000000e+00  3.60847936e-03  0.00000000e+00  1.37986345e-04  0.00000000e+00
  0.00000000e+00  1.37784147e-03  0.00000000e+00  0.00000000e+00  0.00000000e+00
 -3.26459402e-04  0.00000000e+00  0.00000000e+00  3.94253244e-03  0.00000000e+00
  0.00000000e+00  0.00000000e+00  2.61537293e-04  0.00000000e+00  0.00000000e+00
  4.21906296e-04  0.00000000e+00  0.00000000e+00  0.00000000e+00 -6.66969459e-05
  0.00000000e+00  5.32001178e-02  0.00000000e+00  0.00000000e+00 -1.02018790e-02
 -4.00195233e-03  0.00000000e+00  0.00000000e+00 -4.90882169e-04  0.00000000e+00
 -4.48097139e-04  0.00000000e+00  0.00000000e+00  3.11654406e-03  0.00000000e+00
  0.00000000e+00  0.00000000e+00  4.40132104e-04  0.00000000e+00  0.00000000e+00
  1.31131093e-03  0.00000000e+00  0.00000000e+00  0.00000000e+00 -2.56909713e-04
  0.00000000e+00 -3.18618893e-02 -7.88420817e-02 -1.55027843e-01 -4.07817796e-02
  0.00000000e+00 -4.45708765e-03 -8.23801020e-04  0.00000000e+00 -9.92883861e-03
 -2.52400314e-03  0.00000000e+00 -3.13699611e-02  4.25705775e-03  1.25272892e-03
  0.00000000e+00  2.70839715e-04  1.43152441e-03  0.00000000e+00  1.23207988e-03
  0.00000000e+00  3.33417404e-03  3.70916515e-03  0.00000000e+00 -4.23392556e-04
  0.00000000e+00  4.26083723e-04 -5.07934585e-04  0.00000000e+00  0.00000000e+00
  6.99990791e-04 -6.35600384e-04  0.00000000e+00 -3.55787855e-03 -3.54540656e-03
  2.79945814e-04  0.00000000e+00  2.19575837e-03  1.63452455e-03  0.00000000e+00
 -3.03984058e-04  0.00000000e+00 -9.13860730e-04 -6.92291150e-04  0.00000000e+00
  0.00000000e+00 -5.05467442e-04 -3.18618893e-02 -7.88420817e-02 -1.55027843e-01
 -4.07817796e-02  0.00000000e+00  4.45708765e-03 -8.23801020e-04  0.00000000e+00
  9.92883861e-03 -2.52400314e-03  0.00000000e+00  3.13699611e-02  4.25705775e-03
  1.25272892e-03  0.00000000e+00 -2.70839715e-04  1.43152441e-03  0.00000000e+00
  1.23207988e-03  0.00000000e+00 -3.33417404e-03  3.70916515e-03  0.00000000e+00
 -4.23392556e-04  0.00000000e+00 -4.26083723e-04 -5.07934585e-04  0.00000000e+00
  0.00000000e+00 -6.99990791e-04 -6.35600384e-04  0.00000000e+00  3.55787855e-03
 -3.54540656e-03  2.79945814e-04  0.00000000e+00 -2.19575837e-03  1.63452455e-03
  0.00000000e+00 -3.03984058e-04  0.00000000e+00  9.13860730e-04 -6.92291150e-04
  0.00000000e+00  0.00000000e+00  5.05467442e-04  0.00000000e+00  0.00000000e+00
  0.00000000e+00  0.00000000e+00  0.00000000e+00  1.77397284e-01  0.00000000e+00
  0.00000000e+00  3.23405191e-01  0.00000000e+00  0.00000000e+00  4.12943992e-01
  0.00000000e+00  0.00000000e+00  2.46261128e-01  0.00000000e+00  0.00000000e+00
  0.00000000e+00  1.90938685e-03  0.00000000e+00  0.00000000e+00  0.00000000e+00
  0.00000000e+00  8.68003236e-03  0.00000000e+00  0.00000000e+00  0.00000000e+00
  0.00000000e+00  1.20670105e-02  0.00000000e+00  0.00000000e+00  0.00000000e+00
  0.00000000e+00  4.38840161e-04  0.00000000e+00  0.00000000e+00  0.00000000e+00
 -1.31100096e-03  0.00000000e+00  0.00000000e+00  1.22308373e-03  0.00000000e+00
  0.00000000e+00  0.00000000e+00 -3.18817212e-03  0.00000000e+00  0.00000000e+00
 -2.20945158e-05  0.00000000e+00  0.00000000e+00  0.00000000e+00 -3.77783209e-04
  0.00000000e+00  0.00000000e+00  0.00000000e+00  0.00000000e+00  1.98503986e-02
  0.00000000e+00  0.00000000e+00  0.00000000e+00  4.13624054e-03  0.00000000e+00
  0.00000000e+00  0.00000000e+00  0.00000000e+00  1.23254637e-03  0.00000000e+00
  0.00000000e+00  0.00000000e+00  4.57858340e-04  0.00000000e+00  0.00000000e+00
  2.24104880e-04  0.00000000e+00  0.00000000e+00  0.00000000e+00  8.91140996e-05
  0.00000000e+00  0.00000000e+00  0.00000000e+00  0.00000000e+00  0.00000000e+00
  0.00000000e+00  0.00000000e+00  4.46750873e-03  0.00000000e+00  0.00000000e+00
  1.36672636e-02  0.00000000e+00  0.00000000e+00  3.03150194e-02  0.00000000e+00
  0.00000000e+00  0.00000000e+00 -1.23915711e-03  0.00000000e+00  0.00000000e+00
  1.81407149e-03  0.00000000e+00 -3.38325713e-03  0.00000000e+00  0.00000000e+00
  4.03779323e-03  0.00000000e+00  2.11157311e-04  0.00000000e+00  0.00000000e+00
 -9.62293525e-04 -8.31509346e-04  0.00000000e+00  0.00000000e+00  1.29696607e-02
  0.00000000e+00  0.00000000e+00  0.00000000e+00 -4.05106398e-03  0.00000000e+00
  0.00000000e+00  4.33079552e-03  0.00000000e+00  6.01178184e-04  0.00000000e+00
  0.00000000e+00 -3.02543618e-05  2.64756348e-04  0.00000000e+00  0.00000000e+00
  0.00000000e+00  0.00000000e+00  0.00000000e+00  4.46750873e-03  0.00000000e+00
  0.00000000e+00  1.36672636e-02  0.00000000e+00  0.00000000e+00  3.03150194e-02
  0.00000000e+00  0.00000000e+00  0.00000000e+00 -1.23915711e-03  0.00000000e+00
  0.00000000e+00 -1.81407149e-03  0.00000000e+00 -3.38325713e-03  0.00000000e+00
  0.00000000e+00 -4.03779323e-03  0.00000000e+00  2.11157311e-04  0.00000000e+00
  0.00000000e+00  9.62293525e-04 -8.31509346e-04  0.00000000e+00  0.00000000e+00
  1.29696607e-02  0.00000000e+00  0.00000000e+00  0.00000000e+00 -4.05106398e-03
  0.00000000e+00  0.00000000e+00 -4.33079552e-03  0.00000000e+00  6.01178184e-04
  0.00000000e+00  0.00000000e+00  3.02543618e-05  2.64756348e-04  0.00000000e+00
  1.04065065e-03 -3.22796129e-02 -6.56217238e-03 -1.74508405e-01 -1.59858946e+00
  0.00000000e+00  0.00000000e+00 -1.38173781e-02  0.00000000e+00  0.00000000e+00
 -1.95472831e-02  0.00000000e+00  0.00000000e+00 -1.58151405e-01  0.00000000e+00
  0.00000000e+00 -5.69615352e-01 -2.64634268e-04  0.00000000e+00  0.00000000e+00
 -4.59860880e-04  0.00000000e+00 -5.05623242e-04  0.00000000e+00  0.00000000e+00
  5.22824228e-03  0.00000000e+00 -9.90979217e-04  0.00000000e+00  0.00000000e+00
  6.11411248e-02  0.00000000e+00 -7.12800261e-05  0.00000000e+00  0.00000000e+00
  4.09537314e-04  0.00000000e+00  0.00000000e+00  0.00000000e+00  6.30609878e-03
  0.00000000e+00  0.00000000e+00  1.00226388e-02  0.00000000e+00  0.00000000e+00
  0.00000000e+00  3.87917574e-04  0.00000000e+00  0.00000000e+00  9.85270220e-04
  0.00000000e+00  0.00000000e+00  0.00000000e+00 -5.72095314e-04  0.00000000e+00
 -3.50667262e+00  0.00000000e+00  0.00000000e+00 -2.09653137e-01  2.99268553e-02
  0.00000000e+00  0.00000000e+00  9.35151976e-02  0.00000000e+00  1.68085644e-02
  0.00000000e+00  0.00000000e+00  1.59622402e-02  0.00000000e+00  0.00000000e+00
  0.00000000e+00  3.65758245e-03  0.00000000e+00  0.00000000e+00  1.85685439e-03
  0.00000000e+00  0.00000000e+00  0.00000000e+00  8.54352174e-04  0.00000000e+00
 -1.17408774e-03  2.91331719e-02  6.37189480e-01  1.51515252e+00  0.00000000e+00
 -1.66611108e-03  1.25859901e-03  0.00000000e+00  1.94840165e-02 -1.62788036e-02
  0.00000000e+00  1.92805598e-01 -1.54322154e-01  3.04939154e-05  0.00000000e+00
 -1.67011691e-04 -5.75164843e-04  0.00000000e+00  5.77806399e-05  0.00000000e+00
 -2.36277030e-02 -9.71559496e-03  0.00000000e+00  1.30033701e-03  0.00000000e+00
  6.68216442e-04  1.68451240e-03  0.00000000e+00  0.00000000e+00 -6.75379762e-04
  9.04524554e-01  0.00000000e+00  3.25797238e-01 -3.14447033e-01  5.85413581e-03
  0.00000000e+00 -5.01591134e-02 -2.39902721e-02  0.00000000e+00  4.38985317e-03
  0.00000000e+00  2.52356323e-03  3.23353736e-03  0.00000000e+00  0.00000000e+00
  3.00115083e-03 -1.17408774e-03  2.91331719e-02  6.37189480e-01  1.51515252e+00
  0.00000000e+00  1.66611108e-03  1.25859901e-03  0.00000000e+00 -1.94840165e-02
 -1.62788036e-02  0.00000000e+00 -1.92805598e-01 -1.54322154e-01  3.04939154e-05
  0.00000000e+00  1.67011691e-04 -5.75164843e-04  0.00000000e+00  5.77806399e-05
  0.00000000e+00  2.36277030e-02 -9.71559496e-03  0.00000000e+00  1.30033701e-03
  0.00000000e+00 -6.68216442e-04  1.68451240e-03  0.00000000e+00  0.00000000e+00
  6.75379762e-04  9.04524554e-01  0.00000000e+00 -3.25797238e-01 -3.14447033e-01
  5.85413581e-03  0.00000000e+00  5.01591134e-02 -2.39902721e-02  0.00000000e+00
  4.38985317e-03  0.00000000e+00 -2.52356323e-03  3.23353736e-03  0.00000000e+00
  0.00000000e+00 -3.00115083e-03  0.00000000e+00  0.00000000e+00  0.00000000e+00
  0.00000000e+00  0.00000000e+00  0.00000000e+00  1.36168188e-02  0.00000000e+00
  0.00000000e+00  1.99573417e-02  0.00000000e+00  0.00000000e+00  2.06438467e-01
  0.00000000e+00  0.00000000e+00  1.07771361e+00  0.00000000e+00  0.00000000e+00
  0.00000000e+00 -7.29060488e-04  0.00000000e+00  0.00000000e+00  0.00000000e+00
  0.00000000e+00  1.09196239e-02  0.00000000e+00  0.00000000e+00  0.00000000e+00
  0.00000000e+00  7.52330079e-02  0.00000000e+00  0.00000000e+00  0.00000000e+00
  0.00000000e+00  3.79950761e-04  0.00000000e+00  0.00000000e+00  0.00000000e+00
 -6.11570531e-04  0.00000000e+00  0.00000000e+00  1.43802517e-03  0.00000000e+00
  0.00000000e+00  0.00000000e+00 -4.08531822e-03  0.00000000e+00  0.00000000e+00
 -3.84258031e-04  0.00000000e+00  0.00000000e+00  0.00000000e+00 -8.41229948e-04
  0.00000000e+00  0.00000000e+00  0.00000000e+00  0.00000000e+00  1.53304872e+00
  0.00000000e+00  0.00000000e+00  0.00000000e+00  2.30775933e-01  0.00000000e+00
  0.00000000e+00  0.00000000e+00  0.00000000e+00 -5.41937345e-03  0.00000000e+00
  0.00000000e+00  0.00000000e+00 -1.88300526e-02  0.00000000e+00  0.00000000e+00
 -8.68198634e-04  0.00000000e+00  0.00000000e+00  0.00000000e+00 -7.34317921e-04
  0.00000000e+00  0.00000000e+00 -3.18930083e-03  5.52754653e-03  7.33707649e-01
  2.38553653e+00  0.00000000e+00 -2.45029359e-03  1.24106815e-03  0.00000000e+00
  2.38007291e-02 -1.53981611e-02  0.00000000e+00  1.77236261e-01 -2.09123588e-01
 -2.28839440e-04  0.00000000e+00 -3.30729099e-04  2.23198765e-04  0.00000000e+00
  6.05084362e-03  0.00000000e+00 -2.45021349e-02 -1.66003813e-02  0.00000000e+00
  4.95544917e-04  0.00000000e+00  1.57808936e-03  1.82535998e-03  0.00000000e+00
  0.00000000e+00 -7.99286068e-04  3.91501970e+00  0.00000000e+00  4.20529432e-01
 -4.83157053e-01  2.92643895e-02  0.00000000e+00 -6.16246357e-02 -5.68276503e-03